# vtk DataFile Version 2.0
sampleSurface
ASCII
DATASET POLYDATA
POINTS 1144 double
2.71051e-20 0.000196078 0
-1.34235e-21 -0.000196078 0
0 -0.000588235 0
0 0.000588235 0
2.71051e-20 -0.000980392 0
-2.84474e-20 0.000980392 0
2.71051e-20 -0.00137255 0
-2.84474e-20 0.00137255 0
2.71051e-20 0.00176471 0
0 -0.00176471 0
2.71051e-20 0.00215686 0
0 -0.00215686 0
5.42101e-20 0.00254902 0
2.57627e-20 -0.00254902 0
2.57627e-20 -0.00294118 0
0 0.00294118 0
0 0.00333333 0
5.28678e-20 -0.00333333 0
0 -0.00372549 0
2.57627e-20 0.00372549 0
5.42101e-20 -0.00411765 0
2.57627e-20 0.00411765 0
0 -0.0045098 0
2.57627e-20 0.0045098 0
5.28678e-20 -0.000196078 0.0047619
0 0.000196078 0.0047619
-2.84474e-20 -0.000588235 0.0047619
0 0.000588235 0.0047619
-2.57627e-20 -0.000980392 0.0047619
2.57627e-20 0.000980392 0.0047619
5.42101e-20 0.00490196 0
2.57627e-20 -0.00490196 0
2.57627e-20 -0.00137255 0.0047619
2.57627e-20 0.00137255 0.0047619
2.57627e-20 0.00176471 0.0047619
5.15254e-20 -0.00176471 0.0047619
0 0.00215686 0.0047619
0 -0.00215686 0.0047619
0 0.00529412 0
-1.34235e-21 -0.00529412 0
2.57627e-20 0.00254902 0.0047619
0 -0.00254902 0.0047619
2.57627e-20 -0.00294118 0.0047619
0 0.00294118 0.0047619
-2.57627e-20 0.00568627 0
0 -0.00568627 0
0 0.00333333 0.0047619
0 -0.00333333 0.0047619
2.71051e-20 -0.00372549 0.0047619
-2.84474e-20 0.00372549 0.0047619
-2.57627e-20 -0.00607843 0
0 0.00607843 0
0 -0.00411765 0.0047619
0 0.00411765 0.0047619
0 -0.00647059 0
0 0.00647059 0
0 -0.0045098 0.0047619
0 0.0045098 0.0047619
2.71051e-20 0.00490196 0.0047619
0 -0.00490196 0.0047619
2.71051e-20 -0.00686275 0
0 0.00686275 0
1.34235e-21 -0.00529412 0.0047619
-2.57627e-20 0.00529412 0.0047619
-2.71051e-20 -0.0072549 0
2.71051e-20 0.0072549 0
-2.57627e-20 -0.00568627 0.0047619
2.84474e-20 0.00568627 0.0047619
2.71051e-20 0.00764706 0
0 -0.00764706 0
2.57627e-20 -0.00607843 0.0047619
0 0.00607843 0.0047619
5.28678e-20 0.00647059 0.0047619
-2.57627e-20 -0.00647059 0.0047619
0 -0.00803922 0
-5.15254e-20 0.00803922 0
-2.57627e-20 0.00686275 0.0047619
-2.57627e-20 -0.00686275 0.0047619
-5.15254e-20 0.00843137 0
1.34235e-21 -0.00843137 0
2.57627e-20 -0.0072549 0.0047619
-2.57627e-20 0.0072549 0.0047619
2.71051e-20 -0.00882353 0
-2.84474e-20 0.00882353 0
0 0.00764706 0.0047619
0 -0.00764706 0.0047619
2.57627e-20 0.00921569 0
0 -0.00921569 0
0 -0.00803922 0.0047619
0 0.00803922 0.0047619
5.28678e-20 -0.000196078 0.00952381
-1.34235e-21 0.000196078 0.00952381
5.15254e-20 -0.000588235 0.00952381
2.71051e-20 0.000588235 0.00952381
5.28678e-20 -0.000980392 0.00952381
5.28678e-20 0.000980392 0.00952381
2.57627e-20 0.00960784 0
5.15254e-20 -0.00960784 0
0 -0.00137255 0.00952381
2.57627e-20 0.00137255 0.00952381
0 0.00843137 0.0047619
2.57627e-20 -0.00843137 0.0047619
5.28678e-20 -0.00176471 0.00952381
7.99728e-20 0.00176471 0.00952381
7.99728e-20 0.00215686 0.00952381
-1.34235e-21 -0.00215686 0.00952381
7.99728e-20 -0.00254902 0.00952381
5.28678e-20 0.00254902 0.00952381
7.86305e-20 -0.00294118 0.00952381
2.57627e-20 0.00294118 0.00952381
0 -0.01 0
0 0.01 0
2.57627e-20 -0.00882353 0.0047619
0 0.00882353 0.0047619
2.57627e-20 0.00333333 0.00952381
-2.71051e-20 -0.00333333 0.00952381
-1.34235e-21 -0.00372549 0.00952381
-1.34235e-21 0.00372549 0.00952381
0 -0.00921569 0.0047619
2.71051e-20 0.00921569 0.0047619
7.86305e-20 -0.00411765 0.00952381
2.44204e-20 0.00411765 0.00952381
-1.34235e-21 -0.0045098 0.00952381
-1.34235e-21 0.0045098 0.00952381
7.99728e-20 -0.00490196 0.00952381
2.71051e-20 0.00490196 0.00952381
2.71051e-20 0.00960784 0.0047619
2.57627e-20 -0.00960784 0.0047619
0 -0.00529412 0.00952381
2.44204e-20 0.00529412 0.00952381
2.57627e-20 -0.01 0.0047619
2.57627e-20 0.01 0.0047619
5.28678e-20 -0.00568627 0.00952381
-1.34235e-21 0.00568627 0.00952381
-2.71051e-20 -0.00607843 0.00952381
5.28678e-20 0.00607843 0.00952381
5.28678e-20 0.00647059 0.00952381
-1.34235e-21 -0.00647059 0.00952381
2.71051e-20 0.00686275 0.00952381
0 -0.00686275 0.00952381
7.99728e-20 -0.0072549 0.00952381
7.99728e-20 0.0072549 0.00952381
0 0.00764706 0.00952381
7.86305e-20 -0.00764706 0.00952381
-1.34235e-21 -0.00803922 0.00952381
0 0.00803922 0.00952381
0 0.00843137 0.00952381
1.34235e-21 -0.00843137 0.00952381
2.57627e-20 -0.00882353 0.00952381
-2.68469e-21 0.00882353 0.00952381
-1.34235e-21 -0.00921569 0.00952381
-2.68469e-21 0.00921569 0.00952381
5.15254e-20 -0.00960784 0.00952381
-1.34235e-21 0.00960784 0.00952381
-2.71051e-20 -0.01 0.00952381
-2.71051e-20 0.01 0.00952381
0 -0.000196078 0.0142857
2.57627e-20 0.000196078 0.0142857
2.57627e-20 0.000588235 0.0142857
2.57627e-20 -0.000588235 0.0142857
2.57627e-20 -0.000980392 0.0142857
2.57627e-20 0.000980392 0.0142857
2.57627e-20 -0.00137255 0.0142857
0 0.00137255 0.0142857
2.57627e-20 -0.00176471 0.0142857
2.57627e-20 0.00176471 0.0142857
0 -0.00215686 0.0142857
2.57627e-20 0.00215686 0.0142857
5.15254e-20 -0.00254902 0.0142857
0 0.00254902 0.0142857
-2.57627e-20 -0.00294118 0.0142857
7.86305e-20 0.00294118 0.0142857
0 0.00333333 0.0142857
5.28678e-20 -0.00333333 0.0142857
0 -0.00372549 0.0142857
0 0.00372549 0.0142857
0 -0.00411765 0.0142857
5.28678e-20 0.00411765 0.0142857
5.15254e-20 -0.0045098 0.0142857
0 0.0045098 0.0142857
2.57627e-20 0.00490196 0.0142857
5.15254e-20 -0.00490196 0.0142857
0 -0.00529412 0.0142857
2.57627e-20 0.00529412 0.0142857
5.15254e-20 -0.00568627 0.0142857
5.15254e-20 0.00568627 0.0142857
0 -0.00607843 0.0142857
-2.84474e-20 0.00607843 0.0142857
2.71051e-20 -0.00647059 0.0142857
7.86305e-20 0.00647059 0.0142857
-2.68469e-21 -0.00686275 0.0142857
0 0.00686275 0.0142857
5.42101e-20 -0.0072549 0.0142857
0 0.0072549 0.0142857
2.57627e-20 0.00764706 0.0142857
2.57627e-20 -0.00764706 0.0142857
2.57627e-20 -0.00803922 0.0142857
0 0.00803922 0.0142857
2.57627e-20 -0.00843137 0.0142857
5.15254e-20 0.00843137 0.0142857
0 -0.00882353 0.0142857
5.42101e-20 0.00882353 0.0142857
-2.84474e-20 -0.00921569 0.0142857
0 0.00921569 0.0142857
0 -0.00960784 0.0142857
-2.84474e-20 0.00960784 0.0142857
2.57627e-20 -0.01 0.0142857
2.57627e-20 0.01 0.0142857
2.71051e-20 -0.000196078 0.0190476
-2.44204e-20 0.000196078 0.0190476
5.42101e-20 -0.000588235 0.0190476
2.84474e-20 0.000588235 0.0190476
1.34235e-21 -0.000980392 0.0190476
0 0.000980392 0.0190476
0 0.00137255 0.0190476
0 -0.00137255 0.0190476
0 -0.00176471 0.0190476
2.84474e-20 0.00176471 0.0190476
0 -0.00215686 0.0190476
5.42101e-20 0.00215686 0.0190476
2.71051e-20 -0.00254902 0.0190476
2.71051e-20 0.00254902 0.0190476
2.71051e-20 -0.00294118 0.0190476
-2.57627e-20 0.00294118 0.0190476
-2.71051e-20 -0.00333333 0.0190476
2.84474e-20 0.00333333 0.0190476
0 -0.00372549 0.0190476
-2.44204e-20 0.00372549 0.0190476
2.84474e-20 -0.00411765 0.0190476
2.71051e-20 0.00411765 0.0190476
-2.57627e-20 -0.0045098 0.0190476
0 0.0045098 0.0190476
2.71051e-20 -0.00490196 0.0190476
5.28678e-20 0.00490196 0.0190476
5.42101e-20 -0.00529412 0.0190476
1.34235e-21 0.00529412 0.0190476
-2.71051e-20 -0.00568627 0.0190476
2.71051e-20 0.00568627 0.0190476
0 -0.00607843 0.0190476
5.42101e-20 0.00607843 0.0190476
1.34235e-21 -0.00647059 0.0190476
-2.57627e-20 0.00647059 0.0190476
-2.57627e-20 -0.00686275 0.0190476
2.84474e-20 0.00686275 0.0190476
1.34235e-21 -0.0072549 0.0190476
1.34235e-21 0.0072549 0.0190476
0 -0.00764706 0.0190476
1.34235e-21 0.00764706 0.0190476
1.34235e-21 -0.00803922 0.0190476
7.99728e-20 0.00803922 0.0190476
5.42101e-20 -0.00843137 0.0190476
-2.44204e-20 0.00843137 0.0190476
-2.44204e-20 -0.00882353 0.0190476
7.99728e-20 0.00882353 0.0190476
-5.15254e-20 -0.00921569 0.0190476
1.34235e-21 0.00921569 0.0190476
2.71051e-20 -0.00960784 0.0190476
-2.57627e-20 0.00960784 0.0190476
2.84474e-20 -0.01 0.0190476
2.84474e-20 0.01 0.0190476
0 0.000196078 0.0238095
7.72881e-20 -0.000196078 0.0238095
0 -0.000588235 0.0238095
-5.15254e-20 0.000588235 0.0238095
1.34235e-21 -0.000980392 0.0238095
0 0.000980392 0.0238095
0 -0.00137255 0.0238095
2.57627e-20 0.00137255 0.0238095
0 -0.00176471 0.0238095
-5.15254e-20 0.00176471 0.0238095
-2.71051e-20 -0.00215686 0.0238095
-5.15254e-20 0.00215686 0.0238095
2.71051e-20 -0.00254902 0.0238095
2.71051e-20 0.00254902 0.0238095
5.15254e-20 -0.00294118 0.0238095
-5.15254e-20 0.00294118 0.0238095
-2.71051e-20 -0.00333333 0.0238095
-2.44204e-20 0.00333333 0.0238095
0 0.00372549 0.0238095
1.34235e-21 -0.00372549 0.0238095
2.71051e-20 0.00411765 0.0238095
5.15254e-20 -0.00411765 0.0238095
2.71051e-20 0.0045098 0.0238095
2.44204e-20 -0.0045098 0.0238095
0 -0.00490196 0.0238095
2.57627e-20 0.00490196 0.0238095
-2.71051e-20 -0.00529412 0.0238095
-2.57627e-20 0.00529412 0.0238095
0 0.00568627 0.0238095
1.34235e-21 -0.00568627 0.0238095
1.34235e-21 -0.00607843 0.0238095
1.34235e-21 0.00607843 0.0238095
-1.34235e-21 -0.00647059 0.0238095
-1.34235e-21 0.00647059 0.0238095
5.15254e-20 -0.00686275 0.0238095
-2.57627e-20 0.00686275 0.0238095
0 0.0072549 0.0238095
1.34235e-21 -0.0072549 0.0238095
5.42101e-20 0.00764706 0.0238095
-1.34235e-21 -0.00764706 0.0238095
1.34235e-21 0.00803922 0.0238095
5.28678e-20 -0.00803922 0.0238095
0 -0.00843137 0.0238095
2.71051e-20 0.00843137 0.0238095
-1.34235e-21 -0.00882353 0.0238095
5.15254e-20 0.00882353 0.0238095
2.68469e-21 -0.00921569 0.0238095
5.15254e-20 0.00921569 0.0238095
-4.02704e-21 -0.00960784 0.0238095
2.44204e-20 0.00960784 0.0238095
-2.84474e-20 -0.01 0.0238095
-2.84474e-20 0.01 0.0238095
0 0.000196078 0.0285714
7.99728e-20 -0.000196078 0.0285714
0 0.000588235 0.0285714
2.57627e-20 -0.000588235 0.0285714
2.71051e-20 -0.000980392 0.0285714
-2.68469e-21 0.000980392 0.0285714
-2.57627e-20 -0.00137255 0.0285714
-2.68469e-21 0.00137255 0.0285714
2.57627e-20 -0.00176471 0.0285714
2.57627e-20 0.00176471 0.0285714
-1.34235e-21 -0.00215686 0.0285714
2.57627e-20 0.00215686 0.0285714
2.57627e-20 -0.00254902 0.0285714
2.57627e-20 0.00254902 0.0285714
0 -0.00294118 0.0285714
2.57627e-20 0.00294118 0.0285714
0 0.00333333 0.0285714
1.34235e-21 -0.00333333 0.0285714
0 -0.00372549 0.0285714
2.57627e-20 0.00372549 0.0285714
[...]
POINT_DATA 1144
FIELD attributes 1
T 1 1144 float
800 800 800 800 800 800 800 800 800 800
800 800 800 800 800 800 800 322.222 322.222 800
322.222 800 322.222 800 800 800 800 800 800 800
800 322.222 800 800 800 800 800 800 800 322.222
800 800 800 800 800 322.222 800 322.222 322.222 800
322.222 800 322.222 800 322.222 800 322.222 800 800 322.222
322.222 800 322.222 800 322.222 800 322.222 800 800 322.222
322.222 800 800 322.222 322.222 800 800 322.222 800 322.222
322.222 800 322.222 800 800 322.222 800 322.222 322.222 800
800 800 800 800 800 800 800 322.222 800 800
800 322.222 800 800 800 800 800 800 800 800
322.222 800 322.222 800 800 322.222 322.222 800 322.222 800
322.222 800 322.222 800 322.222 800 800 322.222 322.222 800
322.222 800 322.222 800 322.222 800 800 322.222 800 322.222
322.222 800 800 322.222 322.222 800 800 322.222 322.222 800
322.222 800 322.222 800 322.222 800 800 800 800 800
800 800 800 800 800 800 800 800 800 800
800 800 800 322.222 322.222 800 322.222 800 322.222 800
800 322.222 322.222 800 322.222 800 322.222 800 322.222 800
322.222 800 322.222 800 800 322.222 322.222 800 322.222 800
322.222 800 322.222 800 322.222 800 322.222 800 800 800
800 800 800 800 800 800 800 800 800 800
800 800 800 800 322.222 800 322.222 800 322.222 800
322.222 800 322.222 800 322.222 800 322.222 800 322.222 800
322.222 800 322.222 800 322.222 800 322.222 800 322.222 800
322.222 800 322.222 800 322.222 800 322.222 800 322.222 800
800 800 800 800 800 800 800 800 800 800
800 800 800 800 800 800 322.222 800 800 322.222
800 322.222 800 322.222 322.222 800 322.222 800 800 322.222
322.222 800 322.222 800 322.222 800 800 322.222 800 322.222
800 322.222 322.222 800 322.222 800 322.222 800 322.222 800
322.222 800 800 800 800 800 800 800 800 800
800 800 800 800 800 800 800 800 800 322.222
322.222 800 322.222 800 800 322.222 800 322.222 322.222 800
322.222 800 322.222 800 322.222 800 800 322.222 322.222 800
322.222 800 322.222 800 322.222 800 322.222 800 322.222 800
322.222 800 322.222 800 800 800 800 800 800 800
800 800 800 800 800 800 800 800 800 800
322.222 800 322.222 800 322.222 800 322.222 800 322.222 800
800 322.222 322.222 800 322.222 800 322.222 800 322.222 800
322.222 800 322.222 800 322.222 800 800 322.222 322.222 800
322.222 800 322.222 800 322.222 800 800 800 800 800
800 800 800 800 800 800 800 800 800 800
800 800 322.222 800 322.222 800 322.222 800 800 322.222
322.222 800 322.222 800 322.222 800 322.222 800 322.222 800
322.222 800 322.222 800 322.222 800 322.222 800 800 322.222
322.222 800 322.222 800 322.222 800 322.222 800 800 800
800 800 800 800 800 800 800 800 800 800
800 800 800 800 800 322.222 322.222 800 322.222 800
322.222 800 322.222 800 322.222 800 800 322.222 322.222 800
322.222 800 322.222 800 800 322.222 322.222 800 322.222 800
800 322.222 322.222 800 322.222 800 322.222 800 322.222 800
800 800 800 800 800 800 800 800 800 800
800 800 800 800 800 800 322.222 800 322.222 800
322.222 800 322.222 800 800 322.222 322.222 800 800 322.222
322.222 800 322.222 800 322.222 800 322.222 800 322.222 800
322.222 800 322.222 800 322.222 800 322.222 800 800 322.222
322.222 800 800 800 800 800 800 800 800 800
800 800 800 800 800 800 800 800 800 800
800 800 322.222 800 322.222 800 322.222 800 322.222 800
322.222 800 322.222 800 322.222 800 322.222 800 800 322.222
322.222 800 322.222 800 322.222 800 322.222 800 800 322.222
800 322.222 322.222 800 800 800 800 800 800 800
800 800 800 800 800 800 800 800 800 800
800 800 800 800 322.222 800 322.222 800 322.222 800
322.222 800 322.222 800 322.222 800 322.222 800 322.222 800
800 322.222 322.222 800 322.222 800 322.222 800 322.222 800
322.222 800 800 322.222 322.222 800 800 800 800 800
800 800 800 800 800 800 800 800 800 800
800 800 800 800 800 800 800 322.222 322.222 800
322.222 800 322.222 800 322.222 800 322.222 800 322.222 800
322.222 800 800 322.222 800 322.222 800 322.222 322.222 800
800 322.222 322.222 800 322.222 800 322.222 800 800 800
800 800 800 800 800 800 800 800 800 800
800 800 800 800 800 800 800 800 800 322.222
322.222 800 322.222 800 322.222 800 322.222 800 322.222 800
322.222 800 322.222 800 800 322.222 800 322.222 322.222 800
800 322.222 322.222 800 322.222 800 800 322.222 322.222 800
800 800 800 800 800 800 800 800 800 800
800 800 800 800 800 800 800 800 800 800
322.222 800 322.222 800 322.222 800 322.222 800 800 322.222
322.222 800 322.222 800 322.222 800 322.222 800 322.222 800
322.222 800 322.222 800 322.222 800 322.222 800 322.222 800
322.222 800 800 800 800 800 800 800 800 800
800 800 800 800 800 800 800 800 800 800
800 800 800 322.222 322.222 800 322.222 800 322.222 800
322.222 800 322.222 800 322.222 800 322.222 800 322.222 800
322.222 800 322.222 800 322.222 800 322.222 800 322.222 800
322.222 800 322.222 800 800 800 800 800 800 800
800 800 800 800 800 800 800 800 800 800
800 800 800 800 800 322.222 322.222 800 322.222 800
322.222 800 800 322.222 322.222 800 322.222 800 322.222 800
800 322.222 800 322.222 322.222 800 322.222 800 322.222 800
322.222 800 322.222 800 322.222 800 800 800 800 800
800 800 800 800 800 800 800 800 800 800
800 800 800 800 800 800 322.222 800 322.222 800
322.222 800 322.222 800 322.222 800 322.222 800 322.222 800
322.222 800 322.222 800 322.222 800 322.222 800 322.222 800
800 322.222 322.222 800 322.222 800 322.222 800 800 800
800 800 800 800 800 800 800 800 800 800
800 800 800 800 800 800 800 800 322.222 800
322.222 800 322.222 800 322.222 800 322.222 800 322.222 800
322.222 800 322.222 800 322.222 800 322.222 800 322.222 800
322.222 800 322.222 800 322.222 800 322.222 800 322.222 800
800 800 800 800 800 800 800 800 800 800
800 800 800 800 800 800 800 800 800 800
322.222 800 322.222 800 322.222 800 322.222 800 322.222 800
322.222 800 322.222 800 322.222 800 800 322.222 322.222 800
322.222 800 322.222 800 322.222 800 322.222 800 322.222 800
322.222 800 799.766 799.766 799.995 799.995 800 800 800 800
800 800 800 800 800 800 800 800 800 800
800 800 322.222 800 322.222 800 322.222 800 322.222 800
322.222 800 322.222 800 322.222 800 322.222 800 322.222 800
322.222 800 322.222 800 322.222 800 322.222 800 322.222 800
322.222 800 322.222 800
